(written by ASE)

13900 atoms
1 atom types

0.0      40.389939341375594  xlo xhi
0.0      40.799999999999997  ylo yhi
0.0      288.49956672411139  zlo zhi

Atoms # atomic

     1   1      17.982480502584998      11.119999999999999       7.163746750430839
     2   1      20.867476169826112      11.119999999999999       7.163746750430839
     3   1      23.752471837067226      11.119999999999999       7.163746750430839
     4   1       26.63746750430834      11.119999999999999       7.163746750430839
     5   1      29.522463171549454      11.119999999999999       7.163746750430839
     6   1      32.407458838790568      11.119999999999999       7.163746750430839
     7   1      15.097484835343884      15.199999999999998       7.163746750430839
     8   1      16.539982668964441      13.159999999999998       5.721248916810282
     9   1      17.982480502584998      15.199999999999998       7.163746750430839
    10   1      19.424978336205555      13.159999999999998       5.721248916810282
    11   1      20.867476169826112      15.199999999999998       7.163746750430839
    12   1      22.309974003446669      13.159999999999998       5.721248916810282
    13   1      23.752471837067226      15.199999999999998       7.163746750430839
    14   1      25.194969670687783      13.159999999999998       5.721248916810282
    15   1       26.63746750430834      15.199999999999998       7.163746750430839
    16   1      28.079965337928897      13.159999999999998       5.721248916810282
    17   1      29.522463171549454      15.199999999999998       7.163746750430839
    18   1      30.964961005170011      13.159999999999998       5.721248916810282
    19   1      32.407458838790568      15.199999999999998       7.163746750430839
    20   1      33.849956672411125      13.159999999999998       5.721248916810282
    21   1      35.292454506031682      15.199999999999998       7.163746750430839
    22   1      12.212489168102771      19.280000000000001       7.163746750430839
    23   1      13.654987001723327      17.239999999999998       5.721248916810282
    24   1      15.097484835343884      19.280000000000001       7.163746750430839
    25   1      16.539982668964441      17.239999999999998       5.721248916810282
    26   1      17.982480502584998      19.280000000000001       7.163746750430839
    27   1      19.424978336205555      17.239999999999998       5.721248916810282
    28   1      20.867476169826112      19.280000000000001       7.163746750430839
    29   1      22.309974003446669      17.239999999999998       5.721248916810282
    30   1      23.752471837067226      19.280000000000001       7.163746750430839
    31   1      25.194969670687783      17.239999999999998       5.721248916810282
    32   1       26.63746750430834      19.280000000000001       7.163746750430839
    33   1      28.079965337928897      17.239999999999998       5.721248916810282
    34   1      29.522463171549454      19.280000000000001       7.163746750430839
    35   1      30.964961005170011      17.239999999999998       5.721248916810282
    36   1      32.407458838790568      19.280000000000001       7.163746750430839
    37   1      33.849956672411125      17.239999999999998       5.721248916810282
    38   1      35.292454506031682      19.280000000000001       7.163746750430839
    39   1      36.734952339652239      17.239999999999998      5.7212489168102811
    40   1      38.177450173272796      19.280000000000001       7.163746750430839
    41   1      9.3274935008616566      23.359999999999999       7.163746750430839
    42   1      10.769991334482214                   21.32      5.7212489168102829
    43   1      12.212489168102771      23.359999999999999       7.163746750430839
    44   1      13.654987001723327                   21.32       5.721248916810282
    45   1      15.097484835343884      23.359999999999999       7.163746750430839
    46   1      16.539982668964441                   21.32       5.721248916810282
    47   1      17.982480502584998      23.359999999999999       7.163746750430839
    48   1      19.424978336205555                   21.32       5.721248916810282
    49   1      20.867476169826112      23.359999999999999       7.163746750430839
    50   1      22.309974003446669                   21.32       5.721248916810282
    51   1      23.752471837067226      23.359999999999999       7.163746750430839
    52   1      25.194969670687783                   21.32       5.721248916810282
    53   1       26.63746750430834      23.359999999999999       7.163746750430839
    54   1      28.079965337928897                   21.32       5.721248916810282
    55   1      29.522463171549454      23.359999999999999       7.163746750430839
    56   1      30.964961005170011                   21.32       5.721248916810282
    57   1      32.407458838790568      23.359999999999999       7.163746750430839
    58   1      33.849956672411125                   21.32       5.721248916810282
    59   1      35.292454506031682      23.359999999999999       7.163746750430839
    60   1      36.734952339652239                   21.32      5.7212489168102811
    61   1      38.177450173272796      23.359999999999999       7.163746750430839
    62   1      39.619948006893352                   21.32      5.7212489168102811
    63   1      41.062445840513909      23.359999999999999      7.1637467504308381
    64   1      7.8849956672410997      25.399999999999999      5.7212489168102829
    65   1      9.3274935008616566      27.439999999999998       7.163746750430839
    66   1      10.769991334482214      25.399999999999999      5.7212489168102829
    67   1      12.212489168102771      27.439999999999998       7.163746750430839
    68   1      13.654987001723327      25.399999999999999       5.721248916810282
    69   1      15.097484835343884      27.439999999999998       7.163746750430839
    70   1      16.539982668964441      25.399999999999999       5.721248916810282
    71   1      17.982480502584998      27.439999999999998       7.163746750430839
    72   1      19.424978336205555      25.399999999999999       5.721248916810282
    73   1      20.867476169826112      27.439999999999998       7.163746750430839
    74   1      22.309974003446669      25.399999999999999       5.721248916810282
    75   1      23.752471837067226      27.439999999999998       7.163746750430839
    76   1      25.194969670687783      25.399999999999999       5.721248916810282
    77   1       26.63746750430834      27.439999999999998       7.163746750430839
    78   1      28.079965337928897      25.399999999999999       5.721248916810282
    79   1      29.522463171549454      27.439999999999998       7.163746750430839
    80   1      30.964961005170011      25.399999999999999       5.721248916810282
    81   1      32.407458838790568      27.439999999999998       7.163746750430839
    82   1      33.849956672411125      25.399999999999999       5.721248916810282
    83   1      35.292454506031682      27.439999999999998       7.163746750430839
    84   1      36.734952339652239      25.399999999999999      5.7212489168102811
    85   1      38.177450173272796      27.439999999999998       7.163746750430839
    86   1      39.619948006893352      25.399999999999999      5.7212489168102811
    87   1      41.062445840513909      27.439999999999998      7.1637467504308381
    88   1      42.504943674134466      25.399999999999999      5.7212489168102811
    89   1      10.769991334482214                   29.48      5.7212489168102829
    90   1      12.212489168102771                   31.52       7.163746750430839
    91   1      13.654987001723327                   29.48       5.721248916810282
    92   1      15.097484835343884                   31.52       7.163746750430839
    93   1      16.539982668964441                   29.48       5.721248916810282
    94   1      17.982480502584998                   31.52       7.163746750430839
    95   1      19.424978336205555                   29.48       5.721248916810282
    96   1      20.867476169826112                   31.52       7.163746750430839
    97   1      22.309974003446669                   29.48       5.721248916810282
    98   1      23.752471837067226                   31.52       7.163746750430839
    99   1      25.194969670687783                   29.48       5.721248916810282
   100   1       26.63746750430834                   31.52       7.163746750430839
   101   1      28.079965337928897                   29.48       5.721248916810282
   102   1      29.522463171549454                   31.52       7.163746750430839
   103   1      30.964961005170011                   29.48       5.721248916810282
   104   1      32.407458838790568                   31.52       7.163746750430839
   105   1      33.849956672411125                   29.48       5.721248916810282
   106   1      35.292454506031682                   31.52       7.163746750430839
   107   1      36.734952339652239                   29.48      5.7212489168102811
   108   1      38.177450173272796                   31.52       7.163746750430839
   109   1      39.619948006893352                   29.48      5.7212489168102811
   110   1      13.654987001723327      33.560000000000002       5.721248916810282
   111   1      15.097484835343884      35.600000000000001       7.163746750430839
   112   1      16.539982668964441      33.560000000000002       5.721248916810282
   113   1      17.982480502584998      35.600000000000001       7.163746750430839
   114   1      19.424978336205555      33.560000000000002       5.721248916810282
   115   1      20.867476169826112      35.600000000000001       7.163746750430839
   116   1      22.309974003446669      33.560000000000002       5.721248916810282
   117   1      23.752471837067226      35.600000000000001       7.163746750430839
   118   1      25.194969670687783      33.560000000000002       5.721248916810282
   119   1       26.63746750430834      35.600000000000001       7.163746750430839
   120   1      28.079965337928897      33.560000000000002       5.721248916810282
   121   1      29.522463171549454      35.600000000000001       7.163746750430839
   122   1      30.964961005170011      33.560000000000002       5.721248916810282
   123   1      32.407458838790568      35.600000000000001       7.163746750430839
   124   1      33.849956672411125      33.560000000000002       5.721248916810282
   125   1      35.292454506031682      35.600000000000001       7.163746750430839
   126   1      36.734952339652239      33.560000000000002      5.7212489168102811
   127   1      16.539982668964441      37.640000000000001       5.721248916810282
   128   1      17.982480502584998                   39.68       7.163746750430839
   129   1      19.424978336205555      37.640000000000001       5.721248916810282
   130   1      20.867476169826112                   39.68       7.163746750430839
   131   1      22.309974003446669      37.640000000000001       5.721248916810282
   132   1      23.752471837067226                   39.68       7.163746750430839
   133   1      25.194969670687783      37.640000000000001       5.721248916810282
   134   1       26.63746750430834                   39.68       7.163746750430839
   135   1      28.079965337928897      37.640000000000001       5.721248916810282
   136   1      29.522463171549454                   39.68       7.163746750430839
   137   1      30.964961005170011      37.640000000000001       5.721248916810282
   138   1      32.407458838790568                   39.68       7.163746750430839
   139   1      33.849956672411125      37.640000000000001       5.721248916810282
   140   1      17.982480502584998      11.119999999999999      10.048742417671953
   141   1      20.867476169826112      11.119999999999999      10.048742417671953
   142   1      23.752471837067226      11.119999999999999      10.048742417671953
   143   1       26.63746750430834      11.119999999999999      10.048742417671953
   144   1      29.522463171549454      11.119999999999999      10.048742417671953
   145   1      32.407458838790568      11.119999999999999      10.048742417671953
   146   1      15.097484835343884      15.199999999999998      10.048742417671953
   147   1      16.539982668964441      13.159999999999998      8.6062445840513959
   148   1      17.982480502584998      15.199999999999998      10.048742417671953
   149   1      19.424978336205555      13.159999999999998      8.6062445840513959
   150   1      20.867476169826112      15.199999999999998      10.048742417671953
   151   1      22.309974003446669      13.159999999999998      8.6062445840513959
   152   1      23.752471837067226      15.199999999999998      10.048742417671953
   153   1      25.194969670687783      13.159999999999998      8.6062445840513959
   154   1       26.63746750430834      15.199999999999998      10.048742417671953
   155   1      28.079965337928897      13.159999999999998      8.6062445840513959
   156   1      29.522463171549454      15.199999999999998      10.048742417671953
   157   1      30.964961005170011      13.159999999999998      8.6062445840513959
   158   1      32.407458838790568      15.199999999999998      10.048742417671953
   159   1      33.849956672411125      13.159999999999998      8.6062445840513959
   160   1      35.292454506031682      15.199999999999998      10.048742417671953
   161   1      12.212489168102771      19.280000000000001      10.048742417671953
   162   1      13.654987001723327      17.239999999999998      8.6062445840513959
   163   1      15.097484835343884      19.280000000000001      10.048742417671953
   164   1      16.539982668964441      17.239999999999998      8.6062445840513959
   165   1      17.982480502584998      19.280000000000001      10.048742417671953
   166   1      19.424978336205555      17.239999999999998      8.6062445840513959
   167   1      20.867476169826112      19.280000000000001      10.048742417671953
   168   1      22.309974003446669      17.239999999999998      8.6062445840513959
   169   1      23.752471837067226      19.280000000000001      10.048742417671953
   170   1      25.194969670687783      17.239999999999998      8.6062445840513959
   171   1       26.63746750430834      19.280000000000001      10.048742417671953
   172   1      28.079965337928897      17.239999999999998      8.6062445840513959
   173   1      29.522463171549454      19.280000000000001      10.048742417671953
   174   1      30.964961005170011      17.239999999999998      8.6062445840513959
   175   1      32.407458838790568      19.280000000000001      10.048742417671953
   176   1      33.849956672411125      17.239999999999998      8.6062445840513959
   177   1      35.292454506031682      19.280000000000001      10.048742417671953
   178   1      36.734952339652239      17.239999999999998      8.6062445840513959
   179   1      38.177450173272796      19.280000000000001      10.048742417671953
   180   1      9.3274935008616566      23.359999999999999      10.048742417671953
   181   1      10.769991334482214                   21.32      8.6062445840513959
   182   1      12.212489168102771      23.359999999999999      10.048742417671953
   183   1      13.654987001723327                   21.32      8.6062445840513959
   184   1      15.097484835343884      23.359999999999999      10.048742417671953
   185   1      16.539982668964441                   21.32      8.6062445840513959
   186   1      17.982480502584998      23.359999999999999      10.048742417671953
   187   1      19.424978336205555                   21.32      8.6062445840513959
   188   1      20.867476169826112      23.359999999999999      10.048742417671953
   189   1      22.309974003446669                   21.32      8.6062445840513959
   190   1      23.752471837067226      23.359999999999999      10.048742417671953
   191   1      25.194969670687783                   21.32      8.6062445840513959
   192   1       26.63746750430834      23.359999999999999      10.048742417671953
   193   1      28.079965337928897                   21.32      8.6062445840513959
   194   1      29.522463171549454      23.359999999999999      10.048742417671953
   195   1      30.964961005170011                   21.32      8.6062445840513959
   196   1      32.407458838790568      23.359999999999999      10.048742417671953
   197   1      33.849956672411125                   21.32      8.6062445840513959
   198   1      35.292454506031682      23.359999999999999      10.048742417671953
   199   1      36.734952339652239                   21.32      8.6062445840513959
   200   1      38.177450173272796      23.359999999999999      10.048742417671953
   201   1      39.619948006893352                   21.32      8.6062445840513959
   202   1      41.062445840513909      23.359999999999999      10.048742417671953
   203   1      7.8849956672410997      25.399999999999999      8.6062445840513959
   204   1      9.3274935008616566      27.439999999999998      10.048742417671953
   205   1      10.769991334482214      25.399999999999999      8.6062445840513959
   206   1      12.212489168102771      27.439999999999998      10.048742417671953
   207   1      13.654987001723327      25.399999999999999      8.6062445840513959
   208   1      15.097484835343884      27.439999999999998      10.048742417671953
   209   1      16.539982668964441      25.399999999999999      8.6062445840513959
   210   1      17.982480502584998      27.439999999999998      10.048742417671953
   211   1      19.424978336205555      25.399999999999999      8.6062445840513959
   212   1      20.867476169826112      27.439999999999998      10.048742417671953
   213   1      22.309974003446669      25.399999999999999      8.6062445840513959
   214   1      23.752471837067226      27.439999999999998      10.048742417671953
   215   1      25.194969670687783      25.399999999999999      8.6062445840513959
   216   1       26.63746750430834      27.439999999999998      10.048742417671953
   217   1      28.079965337928897      25.399999999999999      8.6062445840513959
   218   1      29.522463171549454      27.439999999999998      10.048742417671953
   219   1      30.964961005170011      25.399999999999999      8.6062445840513959
   220   1      32.407458838790568      27.439999999999998      10.048742417671953
   221   1      33.849956672411125      25.399999999999999      8.6062445840513959
   222   1      35.292454506031682      27.439999999999998      10.048742417671953
   223   1      36.734952339652239      25.399999999999999      8.6062445840513959
   224   1      38.177450173272796      27.439999999999998      10.048742417671953
   225   1      39.619948006893352      25.399999999999999      8.6062445840513959
   226   1      41.062445840513909      27.439999999999998      10.048742417671953
   227   1      42.504943674134466      25.399999999999999      8.6062445840513959
   228   1      10.769991334482214                   29.48      8.6062445840513959
   229   1      12.212489168102771                   31.52      10.048742417671953
   230   1      13.654987001723327                   29.48      8.6062445840513959
   231   1      15.097484835343884                   31.52      10.048742417671953
   232   1      16.539982668964441                   29.48      8.6062445840513959
   233   1      17.982480502584998                   31.52      10.048742417671953
   234   1      19.424978336205555                   29.48      8.6062445840513959
   235   1      20.867476169826112                   31.52      10.048742417671953
   236   1      22.309974003446669                   29.48      8.6062445840513959
   237   1      23.752471837067226                   31.52      10.048742417671953
   238   1      25.194969670687783                   29.48      8.6062445840513959
   239   1       26.63746750430834                   31.52      10.048742417671953
   240   1      28.079965337928897                   29.48      8.6062445840513959
   241   1      29.522463171549454                   31.52      10.048742417671953
   242   1      30.964961005170011                   29.48      8.6062445840513959
   243   1      32.407458838790568                   31.52      10.048742417671953
   244   1      33.849956672411125                   29.48      8.6062445840513959
   245   1      35.292454506031682                   31.52      10.048742417671953
   246   1      36.734952339652239                   29.48      8.6062445840513959
   247   1      38.177450173272796                   31.52      10.048742417671953
   248   1      39.619948006893352                   29.48      8.6062445840513959
   249   1      13.654987001723327      33.560000000000002      8.6062445840513959
   250   1      15.097484835343884      35.600000000000001      10.048742417671953
   251   1      16.539982668964441      33.560000000000002      8.6062445840513959
   252   1      17.982480502584998      35.600000000000001      10.048742417671953
   253   1      19.424978336205555      33.560000000000002      8.6062445840513959
   254   1      20.867476169826112      35.600000000000001      10.048742417671953
   255   1      22.309974003446669      33.560000000000002      8.6062445840513959
   256   1      23.752471837067226      35.600000000000001      10.048742417671953
   257   1      25.194969670687783      33.560000000000002      8.6062445840513959
   258   1       26.63746750430834      35.600000000000001      10.048742417671953
   259   1      28.079965337928897      33.560000000000002      8.6062445840513959
   260   1      29.522463171549454      35.600000000000001      10.048742417671953
   261   1      30.964961005170011      33.560000000000002      8.6062445840513959
   262   1      32.407458838790568      35.600000000000001      10.048742417671953
   263   1      33.849956672411125      33.560000000000002      8.6062445840513959
   264   1      35.292454506031682      35.600000000000001      10.048742417671953
   265   1      36.734952339652239      33.560000000000002      8.6062445840513959
   266   1      16.539982668964441      37.640000000000001      8.6062445840513959
   267   1      17.982480502584998                   39.68      10.048742417671953
   268   1      19.424978336205555      37.640000000000001      8.6062445840513959
   269   1      20.867476169826112                   39.68      10.048742417671953
   270   1      22.309974003446669      37.640000000000001      8.6062445840513959
   271   1      23.752471837067226                   39.68      10.048742417671953
   272   1      25.194969670687783      37.640000000000001      8.6062445840513959
   273   1       26.63746750430834                   39.68      10.048742417671953
   274   1      28.079965337928897      37.640000000000001      8.6062445840513959
   275   1      29.522463171549454                   39.68      10.048742417671953
   276   1      30.964961005170011      37.640000000000001      8.6062445840513959
   277   1      32.407458838790568                   39.68      10.048742417671953
   278   1      33.849956672411125      37.640000000000001      8.6062445840513959
   279   1      17.982480502584998      11.119999999999999      12.933738084913067
   280   1      20.867476169826112      11.119999999999999      12.933738084913067
   281   1      23.752471837067226      11.119999999999999      12.933738084913067
   282   1       26.63746750430834      11.119999999999999      12.933738084913067
   283   1      29.522463171549454      11.119999999999999      12.933738084913067
   284   1      32.407458838790568      11.119999999999999      12.933738084913067
   285   1      15.097484835343884      15.199999999999998      12.933738084913067
   286   1      16.539982668964441      13.159999999999998       11.49124025129251
   287   1      17.982480502584998      15.199999999999998      12.933738084913067
   288   1      19.424978336205555      13.159999999999998       11.49124025129251
   289   1      20.867476169826112      15.199999999999998      12.933738084913067
   290   1      22.309974003446669      13.159999999999998       11.49124025129251
   291   1      23.752471837067226      15.199999999999998      12.933738084913067
   292   1      25.194969670687783      13.159999999999998       11.49124025129251
   293   1       26.63746750430834      15.199999999999998      12.933738084913067
   294   1      28.079965337928897      13.159999999999998       11.49124025129251
   295   1      29.522463171549454      15.199999999999998      12.933738084913067
   296   1      30.964961005170011      13.159999999999998       11.49124025129251
   297   1      32.407458838790568      15.199999999999998      12.933738084913067
   298   1      33.849956672411125      13.159999999999998       11.49124025129251
   299   1      35.292454506031682      15.199999999999998      12.933738084913067
   300   1      12.212489168102771      19.280000000000001      12.933738084913067
   301   1      13.654987001723327      17.239999999999998       11.49124025129251
   302   1      15.097484835343884      19.280000000000001      12.933738084913067
   303   1      16.539982668964441      17.239999999999998       11.49124025129251
   304   1      17.982480502584998      19.280000000000001      12.933738084913067
   305   1      19.424978336205555      17.239999999999998       11.49124025129251
   306   1      20.867476169826112      19.280000000000001      12.933738084913067
   307   1      22.309974003446669      17.239999999999998       11.49124025129251
   308   1      23.752471837067226      19.280000000000001      12.933738084913067
   309   1      25.194969670687783      17.239999999999998       11.49124025129251
   310   1       26.63746750430834      19.280000000000001      12.933738084913067
   311   1      28.079965337928897      17.239999999999998       11.49124025129251
   312   1      29.522463171549454      19.280000000000001      12.933738084913067
   313   1      30.964961005170011      17.239999999999998       11.49124025129251
   314   1      32.407458838790568      19.280000000000001      12.933738084913067
   315   1      33.849956672411125      17.239999999999998       11.49124025129251
   316   1      35.292454506031682      19.280000000000001      12.933738084913067
   317   1      36.734952339652239      17.239999999999998       11.49124025129251
   318   1      38.177450173272796      19.280000000000001      12.933738084913067
   319   1      9.3274935008616566      23.359999999999999      12.933738084913067
   320   1      10.769991334482214                   21.32       11.49124025129251
   321   1      12.212489168102771      23.359999999999999      12.933738084913067
   322   1      13.654987001723327                   21.32       11.49124025129251
   323   1      15.097484835343884      23.359999999999999      12.933738084913067
   324   1      16.539982668964441                   21.32       11.49124025129251
   325   1      17.982480502584998      23.359999999999999      12.933738084913067
   326   1      19.424978336205555                   21.32       11.49124025129251
   327   1      20.867476169826112      23.359999999999999      12.933738084913067
   328   1      22.309974003446669                   21.32       11.49124025129251
   329   1      23.752471837067226      23.359999999999999      12.933738084913067
   330   1      25.194969670687783                   21.32       11.49124025129251
   331   1       26.63746750430834      23.359999999999999      12.933738084913067
   332   1      28.079965337928897                   21.32       11.49124025129251
   333   1      29.522463171549454      23.359999999999999      12.933738084913067
   334   1      30.964961005170011                   21.32       11.49124025129251
   335   1      32.407458838790568      23.359999999999999      12.933738084913067
   336   1      33.849956672411125                   21.32       11.49124025129251
   337   1      35.292454506031682      23.359999999999999      12.933738084913067
   338   1      36.734952339652239                   21.32       11.49124025129251
   339   1      38.177450173272796      23.359999999999999      12.933738084913067
   340   1      39.619948006893352                   21.32       11.49124025129251
   341   1      41.062445840513909      23.359999999999999      12.933738084913067
   342   1      7.8849956672410997      25.399999999999999       11.49124025129251
   343   1      9.3274935008616566      27.439999999999998      12.933738084913067
   344   1      10.769991334482214      25.399999999999999       11.49124025129251
   345   1      12.212489168102771      27.439999999999998      12.933738084913067
   346   1      13.654987001723327      25.399999999999999       11.49124025129251
   347   1      15.097484835343884      27.439999999999998      12.933738084913067
   348   1      16.539982668964441      25.399999999999999       11.49124025129251
   349   1      17.982480502584998      27.439999999999998      12.933738084913067
   350   1      19.424978336205555      25.399999999999999       11.49124025129251
   351   1      20.867476169826112      27.439999999999998      12.933738084913067
   352   1      22.309974003446669      25.399999999999999       11.49124025129251
   353   1      23.752471837067226      27.439999999999998      12.933738084913067
   354   1      25.194969670687783      25.399999999999999       11.49124025129251
   355   1       26.63746750430834      27.439999999999998      12.933738084913067
   356   1      28.079965337928897      25.399999999999999       11.49124025129251
   357   1      29.522463171549454      27.439999999999998      12.933738084913067
   358   1      30.964961005170011      25.399999999999999       11.49124025129251
   359   1      32.407458838790568      27.439999999999998      12.933738084913067